# vtk DataFile Version 1.0
Cube
ASCII

DATASET POLYDATA
POINTS 7 float
2.164651 1.057790 1.735325
1.795014 1.279998 2.099861
2.122923 1.116670 1.125525
1.887729 1.279998 0.934858
1.926165 1.279998 0.451890
2.202363 1.111550 0.225945
2.363065 0.998910 0.376295
POINT_DATA 7
SCALARS my_scalars float
LOOKUP_TABLE default
1.39
1.52
1.52
1.7
1.7
1.7
1.09
VECTORS vectors float
0.4375 0 0
0.03125 0 0
0.03125 0 0
0.3125 0 0
0.3125 0 0
0.3125 0 0
0.25 0 0
